Title: simul16-dec-2025_13-23-57.cir
Date: Tue Dec 16 13:24:17  2025
Plotname: AC Analysis
Flags: complex
No. Variables: 1344
No. Points: 1
Variables:
	0	frequency	frequency grid=3
	1	v(1)	voltage
	2	v(2)	voltage
	3	v(3)	voltage
	4	v(4)	voltage
	5	v(5)	voltage
	6	v(6)	voltage
	7	v(7)	voltage
	8	v(8)	voltage
	9	v(9)	voltage
	10	v(10)	voltage
	11	v(11)	voltage
	12	v(12)	voltage
	13	v(13)	voltage
	14	v(14)	voltage
	15	v(15)	voltage
	16	v(16)	voltage
	17	v(17)	voltage
	18	v(18)	voltage
	19	v(19)	voltage
	20	v(20)	voltage
	21	v(21)	voltage
	22	v(22)	voltage
	23	v(23)	voltage
	24	v(24)	voltage
	25	v(25)	voltage
	26	v(26)	voltage
	27	v(27)	voltage
	28	v(28)	voltage
	29	v(29)	voltage
	30	v(30)	voltage
	31	v(31)	voltage
	32	v(32)	voltage
	33	v(33)	voltage
	34	v(34)	voltage
	35	v(35)	voltage
	36	v(36)	voltage
	37	v(37)	voltage
	38	v(38)	voltage
	39	v(39)	voltage
	40	v(40)	voltage
	41	v(41)	voltage
	42	v(42)	voltage
	43	v(43)	voltage
	44	v(44)	voltage
	45	v(45)	voltage
	46	v(46)	voltage
	47	v(47)	voltage
	48	v(48)	voltage
	49	v(49)	voltage
	50	v(50)	voltage
	51	v(51)	voltage
	52	v(52)	voltage
	53	v(53)	voltage
	54	v(54)	voltage
	55	v(55)	voltage
	56	v(56)	voltage
	57	v(57)	voltage
	58	v(58)	voltage
	59	v(59)	voltage
	60	v(60)	voltage
	61	v(61)	voltage
	62	v(62)	voltage
	63	v(63)	voltage
	64	v(64)	voltage
	65	v(65)	voltage
	66	v(66)	voltage
	67	v(67)	voltage
	68	v(68)	voltage
	69	v(69)	voltage
	70	v(70)	voltage
	71	v(71)	voltage
	72	v(72)	voltage
	73	v(73)	voltage
	74	v(74)	voltage
	75	v(75)	voltage
	76	v(76)	voltage
	77	v(77)	voltage
	78	v(78)	voltage
	79	v(79)	voltage
	80	v(80)	voltage
	81	v(81)	voltage
	82	v(82)	voltage
	83	v(83)	voltage
	84	v(84)	voltage
	85	v(85)	voltage
	86	v(86)	voltage
	87	v(87)	voltage
	88	v(88)	voltage
	89	v(89)	voltage
	90	v(90)	voltage
	91	v(91)	voltage
	92	v(92)	voltage
	93	v(93)	voltage
	94	v(94)	voltage
	95	v(95)	voltage
	96	v(96)	voltage
	97	v(97)	voltage
	98	v(98)	voltage
	99	v(99)	voltage
	100	v(100)	voltage
	101	v(101)	voltage
	102	v(102)	voltage
	103	v(103)	voltage
	104	v(104)	voltage
	105	v(105)	voltage
	106	v(106)	voltage
	107	v(107)	voltage
	108	v(108)	voltage
	109	v(109)	voltage
	110	v(110)	voltage
	111	v(111)	voltage
	112	v(112)	voltage
	113	v(113)	voltage
	114	v(114)	voltage
	115	v(115)	voltage
	116	v(116)	voltage
	117	v(117)	voltage
	118	v(118)	voltage
	119	v(119)	voltage
	120	v(120)	voltage
	121	v(121)	voltage
	122	v(122)	voltage
	123	v(123)	voltage
	124	v(124)	voltage
	125	v(125)	voltage
	126	v(126)	voltage
	127	v(127)	voltage
	128	v(128)	voltage
	129	v(129)	voltage
	130	v(130)	voltage
	131	v(131)	voltage
	132	v(132)	voltage
	133	v(133)	voltage
	134	v(134)	voltage
	135	v(135)	voltage
	136	v(136)	voltage
	137	v(137)	voltage
	138	v(138)	voltage
	139	v(139)	voltage
	140	v(140)	voltage
	141	v(141)	voltage
	142	v(142)	voltage
	143	v(143)	voltage
	144	v(144)	voltage
	145	v(145)	voltage
	146	v(146)	voltage
	147	v(147)	voltage
	148	v(148)	voltage
	149	v(149)	voltage
	150	v(150)	voltage
	151	v(151)	voltage
	152	v(152)	voltage
	153	v(153)	voltage
	154	v(154)	voltage
	155	v(155)	voltage
	156	v(156)	voltage
	157	v(157)	voltage
	158	v(158)	voltage
	159	v(159)	voltage
	160	v(160)	voltage
	161	v(161)	voltage
	162	v(162)	voltage
	163	v(163)	voltage
	164	v(164)	voltage
	165	v(165)	voltage
	166	v(166)	voltage
	167	v(167)	voltage
	168	v(168)	voltage
	169	v(169)	voltage
	170	v(170)	voltage
	171	v(171)	voltage
	172	v(172)	voltage
	173	v(173)	voltage
	174	v(174)	voltage
	175	v(175)	voltage
	176	v(176)	voltage
	177	v(177)	voltage
	178	v(178)	voltage
	179	v(179)	voltage
	180	v(180)	voltage
	181	v(181)	voltage
	182	v(182)	voltage
	183	v(183)	voltage
	184	v(184)	voltage
	185	v(185)	voltage
	186	v(186)	voltage
	187	v(187)	voltage
	188	v(188)	voltage
	189	v(189)	voltage
	190	v(190)	voltage
	191	v(191)	voltage
	192	v(192)	voltage
	193	v(193)	voltage
	194	v(194)	voltage
	195	v(195)	voltage
	196	v(196)	voltage
	197	v(197)	voltage
	198	v(198)	voltage
	199	v(199)	voltage
	200	v(200)	voltage
	201	v(201)	voltage
	202	v(202)	voltage
	203	v(203)	voltage
	204	v(204)	voltage
	205	v(205)	voltage
	206	v(206)	voltage
	207	v(207)	voltage
	208	v(208)	voltage
	209	v(209)	voltage
	210	v(210)	voltage
	211	v(211)	voltage
	212	v(212)	voltage
	213	v(213)	voltage
	214	v(214)	voltage
	215	v(215)	voltage
	216	v(216)	voltage
	217	v(217)	voltage
	218	v(218)	voltage
	219	v(219)	voltage
	220	v(220)	voltage
	221	v(221)	voltage
	222	v(222)	voltage
	223	v(223)	voltage
	224	v(224)	voltage
	225	v(225)	voltage
	226	v(226)	voltage
	227	v(227)	voltage
	228	v(228)	voltage
	229	v(229)	voltage
	230	v(230)	voltage
	231	v(231)	voltage
	232	v(232)	voltage
	233	v(233)	voltage
	234	v(234)	voltage
	235	v(235)	voltage
	236	v(236)	voltage
	237	v(237)	voltage
	238	v(238)	voltage
	239	v(239)	voltage
	240	v(240)	voltage
	241	v(241)	voltage
	242	v(242)	voltage
	243	v(243)	voltage
	244	v(244)	voltage
	245	v(245)	voltage
	246	v(246)	voltage
	247	v(247)	voltage
	248	v(248)	voltage
	249	v(249)	voltage
	250	v(250)	voltage
	251	v(251)	voltage
	252	v(252)	voltage
	253	v(253)	voltage
	254	v(254)	voltage
	255	v(255)	voltage
	256	v(256)	voltage
	257	v(257)	voltage
	258	v(258)	voltage
	259	v(259)	voltage
	260	v(260)	voltage
	261	v(261)	voltage
	262	v(262)	voltage
	263	v(263)	voltage
	264	v(264)	voltage
	265	v(265)	voltage
	266	v(266)	voltage
	267	v(267)	voltage
	268	v(268)	voltage
	269	v(269)	voltage
	270	v(270)	voltage
	271	v(271)	voltage
	272	v(272)	voltage
	273	v(273)	voltage
	274	v(274)	voltage
	275	v(275)	voltage
	276	v(276)	voltage
	277	v(277)	voltage
	278	v(278)	voltage
	279	v(279)	voltage
	280	v(280)	voltage
	281	v(281)	voltage
	282	v(282)	voltage
	283	v(283)	voltage
	284	v(284)	voltage
	285	v(285)	voltage
	286	v(286)	voltage
	287	v(287)	voltage
	288	v(288)	voltage
	289	v(289)	voltage
	290	v(290)	voltage
	291	v(291)	voltage
	292	v(292)	voltage
	293	v(293)	voltage
	294	v(294)	voltage
	295	v(295)	voltage
	296	v(296)	voltage
	297	v(297)	voltage
	298	v(298)	voltage
	299	v(299)	voltage
	300	v(300)	voltage
	301	v(301)	voltage
	302	v(302)	voltage
	303	v(303)	voltage
	304	v(304)	voltage
	305	v(305)	voltage
	306	v(306)	voltage
	307	v(307)	voltage
	308	v(308)	voltage
	309	v(309)	voltage
	310	v(310)	voltage
	311	v(311)	voltage
	312	v(312)	voltage
	313	v(313)	voltage
	314	v(314)	voltage
	315	v(315)	voltage
	316	v(316)	voltage
	317	v(317)	voltage
	318	v(318)	voltage
	319	v(319)	voltage
	320	v(320)	voltage
	321	v(321)	voltage
	322	v(322)	voltage
	323	v(323)	voltage
	324	v(324)	voltage
	325	v(325)	voltage
	326	v(326)	voltage
	327	v(327)	voltage
	328	v(328)	voltage
	329	v(329)	voltage
	330	v(330)	voltage
	331	v(331)	voltage
	332	v(332)	voltage
	333	v(333)	voltage
	334	v(334)	voltage
	335	v(335)	voltage
	336	v(336)	voltage
	337	v(337)	voltage
	338	v(338)	voltage
	339	v(339)	voltage
	340	v(340)	voltage
	341	v(341)	voltage
	342	v(342)	voltage
	343	v(343)	voltage
	344	v(344)	voltage
	345	v(345)	voltage
	346	v(346)	voltage
	347	v(347)	voltage
	348	v(348)	voltage
	349	v(349)	voltage
	350	v(350)	voltage
	351	v(351)	voltage
	352	v(352)	voltage
	353	v(353)	voltage
	354	v(354)	voltage
	355	v(355)	voltage
	356	v(356)	voltage
	357	v(357)	voltage
	358	v(358)	voltage
	359	v(359)	voltage
	360	v(360)	voltage
	361	v(361)	voltage
	362	v(362)	voltage
	363	v(363)	voltage
	364	v(364)	voltage
	365	v(365)	voltage
	366	v(366)	voltage
	367	v(367)	voltage
	368	v(368)	voltage
	369	v(369)	voltage
	370	v(370)	voltage
	371	v(371)	voltage
	372	v(372)	voltage
	373	v(373)	voltage
	374	v(374)	voltage
	375	v(375)	voltage
	376	v(376)	voltage
	377	v(377)	voltage
	378	v(378)	voltage
	379	v(379)	voltage
	380	v(380)	voltage
	381	v(381)	voltage
	382	v(382)	voltage
	383	v(383)	voltage
	384	v(384)	voltage
	385	v(385)	voltage
	386	v(386)	voltage
	387	v(387)	voltage
	388	v(388)	voltage
	389	v(389)	voltage
	390	v(390)	voltage
	391	v(391)	voltage
	392	v(392)	voltage
	393	v(393)	voltage
	394	v(394)	voltage
	395	v(395)	voltage
	396	v(396)	voltage
	397	v(397)	voltage
	398	v(398)	voltage
	399	v(399)	voltage
	400	v(400)	voltage
	401	v(401)	voltage
	402	v(402)	voltage
	403	v(403)	voltage
	404	v(404)	voltage
	405	v(405)	voltage
	406	v(406)	voltage
	407	v(407)	voltage
	408	v(408)	voltage
	409	v(409)	voltage
	410	v(410)	voltage
	411	v(411)	voltage
	412	v(412)	voltage
	413	v(413)	voltage
	414	v(414)	voltage
	415	v(415)	voltage
	416	v(416)	voltage
	417	v(417)	voltage
	418	v(418)	voltage
	419	v(419)	voltage
	420	v(420)	voltage
	421	v(421)	voltage
	422	v(422)	voltage
	423	v(423)	voltage
	424	v(424)	voltage
	425	v(425)	voltage
	426	v(426)	voltage
	427	v(427)	voltage
	428	v(428)	voltage
	429	v(429)	voltage
	430	v(430)	voltage
	431	v(431)	voltage
	432	v(432)	voltage
	433	v(433)	voltage
	434	v(434)	voltage
	435	v(435)	voltage
	436	v(436)	voltage
	437	v(437)	voltage
	438	v(438)	voltage
	439	v(439)	voltage
	440	v(440)	voltage
	441	v(441)	voltage
	442	v(442)	voltage
	443	v(443)	voltage
	444	v(444)	voltage
	445	v(445)	voltage
	446	v(446)	voltage
	447	v(447)	voltage
	448	v(448)	voltage
	449	v(449)	voltage
	450	v(450)	voltage
	451	v(451)	voltage
	452	v(452)	voltage
	453	v(453)	voltage
	454	v(454)	voltage
	455	v(455)	voltage
	456	v(456)	voltage
	457	v(457)	voltage
	458	v(458)	voltage
	459	v(459)	voltage
	460	v(460)	voltage
	461	v(461)	voltage
	462	v(462)	voltage
	463	v(463)	voltage
	464	v(464)	voltage
	465	v(465)	voltage
	466	v(466)	voltage
	467	v(467)	voltage
	468	v(468)	voltage
	469	v(469)	voltage
	470	v(470)	voltage
	471	v(471)	voltage
	472	v(472)	voltage
	473	v(473)	voltage
	474	v(474)	voltage
	475	v(475)	voltage
	476	v(476)	voltage
	477	v(477)	voltage
	478	v(478)	voltage
	479	v(479)	voltage
	480	v(480)	voltage
	481	v(481)	voltage
	482	v(482)	voltage
	483	v(483)	voltage
	484	v(484)	voltage
	485	v(485)	voltage
	486	v(486)	voltage
	487	v(487)	voltage
	488	v(488)	voltage
	489	v(489)	voltage
	490	v(490)	voltage
	491	v(491)	voltage
	492	v(492)	voltage
	493	v(493)	voltage
	494	v(494)	voltage
	495	v(495)	voltage
	496	v(496)	voltage
	497	v(497)	voltage
	498	v(498)	voltage
	499	v(499)	voltage
	500	v(500)	voltage
	501	v(501)	voltage
	502	v(502)	voltage
	503	v(503)	voltage
	504	v(504)	voltage
	505	v(505)	voltage
	506	v(506)	voltage
	507	v(507)	voltage
	508	v(508)	voltage
	509	v(509)	voltage
	510	v(510)	voltage
	511	v(511)	voltage
	512	v(512)	voltage
	513	v(513)	voltage
	514	v(514)	voltage
	515	v(515)	voltage
	516	v(516)	voltage
	517	v(517)	voltage
	518	v(518)	voltage
	519	v(519)	voltage
	520	v(520)	voltage
	521	v(521)	voltage
	522	v(522)	voltage
	523	v(523)	voltage
	524	v(524)	voltage
	525	v(525)	voltage
	526	v(526)	voltage
	527	v(527)	voltage
	528	v(528)	voltage
	529	v(529)	voltage
	530	v(530)	voltage
	531	v(531)	voltage
	532	v(532)	voltage
	533	v(533)	voltage
	534	v(534)	voltage
	535	v(535)	voltage
	536	v(536)	voltage
	537	v(537)	voltage
	538	v(538)	voltage
	539	v(539)	voltage
	540	v(540)	voltage
	541	v(541)	voltage
	542	v(542)	voltage
	543	v(543)	voltage
	544	v(544)	voltage
	545	v(545)	voltage
	546	v(546)	voltage
	547	v(547)	voltage
	548	v(548)	voltage
	549	v(549)	voltage
	550	v(550)	voltage
	551	v(551)	voltage
	552	v(552)	voltage
	553	v(553)	voltage
	554	v(554)	voltage
	555	v(555)	voltage
	556	v(556)	voltage
	557	v(557)	voltage
	558	v(558)	voltage
	559	v(559)	voltage
	560	v(560)	voltage
	561	v(561)	voltage
	562	v(562)	voltage
	563	v(563)	voltage
	564	v(564)	voltage
	565	v(565)	voltage
	566	v(566)	voltage
	567	v(567)	voltage
	568	v(568)	voltage
	569	v(569)	voltage
	570	v(570)	voltage
	571	v(571)	voltage
	572	v(572)	voltage
	573	v(573)	voltage
	574	v(574)	voltage
	575	v(575)	voltage
	576	v(576)	voltage
	577	v(577)	voltage
	578	v(578)	voltage
	579	v(579)	voltage
	580	v(580)	voltage
	581	v(581)	voltage
	582	v(582)	voltage
	583	v(583)	voltage
	584	v(584)	voltage
	585	v(585)	voltage
	586	v(586)	voltage
	587	v(587)	voltage
	588	v(588)	voltage
	589	v(589)	voltage
	590	v(590)	voltage
	591	v(591)	voltage
	592	v(592)	voltage
	593	v(593)	voltage
	594	v(594)	voltage
	595	v(595)	voltage
	596	v(596)	voltage
	597	v(597)	voltage
	598	v(598)	voltage
	599	v(599)	voltage
	600	v(600)	voltage
	601	v(601)	voltage
	602	v(602)	voltage
	603	v(603)	voltage
	604	v(604)	voltage
	605	v(605)	voltage
	606	v(606)	voltage
	607	v(607)	voltage
	608	v(608)	voltage
	609	v(609)	voltage
	610	v(610)	voltage
	611	v(611)	voltage
	612	v(612)	voltage
	613	v(613)	voltage
	614	v(614)	voltage
	615	v(615)	voltage
	616	v(616)	voltage
	617	v(617)	voltage
	618	v(618)	voltage
	619	v(619)	voltage
	620	v(620)	voltage
	621	v(621)	voltage
	622	v(622)	voltage
	623	v(623)	voltage
	624	v(624)	voltage
	625	v(625)	voltage
	626	v(626)	voltage
	627	v(627)	voltage
	628	v(628)	voltage
	629	v(629)	voltage
	630	v(630)	voltage
	631	v(631)	voltage
	632	v(632)	voltage
	633	v(633)	voltage
	634	v(634)	voltage
	635	v(635)	voltage
	636	v(636)	voltage
	637	v(637)	voltage
	638	v(638)	voltage
	639	v(639)	voltage
	640	v(640)	voltage
	641	v(641)	voltage
	642	v(642)	voltage
	643	v(643)	voltage
	644	v(644)	voltage
	645	v(645)	voltage
	646	v(646)	voltage
	647	v(647)	voltage
	648	v(648)	voltage
	649	v(649)	voltage
	650	v(650)	voltage
	651	v(651)	voltage
	652	v(652)	voltage
	653	v(653)	voltage
	654	v(654)	voltage
	655	v(655)	voltage
	656	v(656)	voltage
	657	v(657)	voltage
	658	v(658)	voltage
	659	v(659)	voltage
	660	v(660)	voltage
	661	v(661)	voltage
	662	v(662)	voltage
	663	v(663)	voltage
	664	v(664)	voltage
	665	v(665)	voltage
	666	v(666)	voltage
	667	v(667)	voltage
	668	v(668)	voltage
	669	v(669)	voltage
	670	v(670)	voltage
	671	v(671)	voltage
	672	v(672)	voltage
	673	v(673)	voltage
	674	v(674)	voltage
	675	v(675)	voltage
	676	v(676)	voltage
	677	v(677)	voltage
	678	v(678)	voltage
	679	v(679)	voltage
	680	v(680)	voltage
	681	v(681)	voltage
	682	v(682)	voltage
	683	v(683)	voltage
	684	v(684)	voltage
	685	v(685)	voltage
	686	v(686)	voltage
	687	v(687)	voltage
	688	v(688)	voltage
	689	v(689)	voltage
	690	v(690)	voltage
	691	v(691)	voltage
	692	v(692)	voltage
	693	v(693)	voltage
	694	v(694)	voltage
	695	v(695)	voltage
	696	v(696)	voltage
	697	v(697)	voltage
	698	v(698)	voltage
	699	v(699)	voltage
	700	v(700)	voltage
	701	v(701)	voltage
	702	v(702)	voltage
	703	v(703)	voltage
	704	v(704)	voltage
	705	v(705)	voltage
	706	v(706)	voltage
	707	v(707)	voltage
	708	v(708)	voltage
	709	v(709)	voltage
	710	v(710)	voltage
	711	v(711)	voltage
	712	v(712)	voltage
	713	v(713)	voltage
	714	v(714)	voltage
	715	v(715)	voltage
	716	v(716)	voltage
	717	v(717)	voltage
	718	v(718)	voltage
	719	v(719)	voltage
	720	v(720)	voltage
	721	v(721)	voltage
	722	v(722)	voltage
	723	v(723)	voltage
	724	v(724)	voltage
	725	v(725)	voltage
	726	v(726)	voltage
	727	v(727)	voltage
	728	v(728)	voltage
	729	v(729)	voltage
	730	v(730)	voltage
	731	v(731)	voltage
	732	v(732)	voltage
	733	v(733)	voltage
	734	v(734)	voltage
	735	v(735)	voltage
	736	v(736)	voltage
	737	v(737)	voltage
	738	v(738)	voltage
	739	v(739)	voltage
	740	v(740)	voltage
	741	v(741)	voltage
	742	v(742)	voltage
	743	v(743)	voltage
	744	v(744)	voltage
	745	v(745)	voltage
	746	v(746)	voltage
	747	v(747)	voltage
	748	v(748)	voltage
	749	v(749)	voltage
	750	v(750)	voltage
	751	v(751)	voltage
	752	v(752)	voltage
	753	v(753)	voltage
	754	v(754)	voltage
	755	v(755)	voltage
	756	v(756)	voltage
	757	v(757)	voltage
	758	v(758)	voltage
	759	v(759)	voltage
	760	v(760)	voltage
	761	v(761)	voltage
	762	v(762)	voltage
	763	v(763)	voltage
	764	v(764)	voltage
	765	v(765)	voltage
	766	v(766)	voltage
	767	v(767)	voltage
	768	v(768)	voltage
	769	v(769)	voltage
	770	v(770)	voltage
	771	v(771)	voltage
	772	v(772)	voltage
	773	v(773)	voltage
	774	v(774)	voltage
	775	v(775)	voltage
	776	v(776)	voltage
	777	v(777)	voltage
	778	v(778)	voltage
	779	v(779)	voltage
	780	v(780)	voltage
	781	v(781)	voltage
	782	v(782)	voltage
	783	v(783)	voltage
	784	v(784)	voltage
	785	v(785)	voltage
	786	v(786)	voltage
	787	v(787)	voltage
	788	v(788)	voltage
	789	v(789)	voltage
	790	v(790)	voltage
	791	v(791)	voltage
	792	v(792)	voltage
	793	v(793)	voltage
	794	v(794)	voltage
	795	v(795)	voltage
	796	v(796)	voltage
	797	v(797)	voltage
	798	v(798)	voltage
	799	v(799)	voltage
	800	v(800)	voltage
	801	v(801)	voltage
	802	v(802)	voltage
	803	v(803)	voltage
	804	v(804)	voltage
	805	v(805)	voltage
	806	v(806)	voltage
	807	v(807)	voltage
	808	v(808)	voltage
	809	v(809)	voltage
	810	v(810)	voltage
	811	v(811)	voltage
	812	v(812)	voltage
	813	v(813)	voltage
	814	v(814)	voltage
	815	v(815)	voltage
	816	v(816)	voltage
	817	v(817)	voltage
	818	v(818)	voltage
	819	v(819)	voltage
	820	v(820)	voltage
	821	v(821)	voltage
	822	v(822)	voltage
	823	v(823)	voltage
	824	v(824)	voltage
	825	v(825)	voltage
	826	v(826)	voltage
	827	v(827)	voltage
	828	v(828)	voltage
	829	v(829)	voltage
	830	v(830)	voltage
	831	v(831)	voltage
	832	v(832)	voltage
	833	v(833)	voltage
	834	v(834)	voltage
	835	v(835)	voltage
	836	v(836)	voltage
	837	v(837)	voltage
	838	v(838)	voltage
	839	v(839)	voltage
	840	v(840)	voltage
	841	v(841)	voltage
	842	v(842)	voltage
	843	v(843)	voltage
	844	v(844)	voltage
	845	v(845)	voltage
	846	v(846)	voltage
	847	v(847)	voltage
	848	v(848)	voltage
	849	v(849)	voltage
	850	v(850)	voltage
	851	v(851)	voltage
	852	v(852)	voltage
	853	v(853)	voltage
	854	v(854)	voltage
	855	v(855)	voltage
	856	v(856)	voltage
	857	v(857)	voltage
	858	v(858)	voltage
	859	v(859)	voltage
	860	v(860)	voltage
	861	v(861)	voltage
	862	v(862)	voltage
	863	v(863)	voltage
	864	v(864)	voltage
	865	v(865)	voltage
	866	v(866)	voltage
	867	v(867)	voltage
	868	v(868)	voltage
	869	v(869)	voltage
	870	v(870)	voltage
	871	v(871)	voltage
	872	v(872)	voltage
	873	v(873)	voltage
	874	v(874)	voltage
	875	v(875)	voltage
	876	v(876)	voltage
	877	v(877)	voltage
	878	v(878)	voltage
	879	v(879)	voltage
	880	v(880)	voltage
	881	v(881)	voltage
	882	v(882)	voltage
	883	v(883)	voltage
	884	v(884)	voltage
	885	v(885)	voltage
	886	v(886)	voltage
	887	v(887)	voltage
	888	v(888)	voltage
	889	v(889)	voltage
	890	v(890)	voltage
	891	v(891)	voltage
	892	v(892)	voltage
	893	v(893)	voltage
	894	v(894)	voltage
	895	v(895)	voltage
	896	v(896)	voltage
	897	v(897)	voltage
	898	v(898)	voltage
	899	v(899)	voltage
	900	v(900)	voltage
	901	v(901)	voltage
	902	v(902)	voltage
	903	v(903)	voltage
	904	v(904)	voltage
	905	v(905)	voltage
	906	v(906)	voltage
	907	v(907)	voltage
	908	v(908)	voltage
	909	v(909)	voltage
	910	v(910)	voltage
	911	v(911)	voltage
	912	v(912)	voltage
	913	v(913)	voltage
	914	v(914)	voltage
	915	v(915)	voltage
	916	v(916)	voltage
	917	v(917)	voltage
	918	v(918)	voltage
	919	v(919)	voltage
	920	v(920)	voltage
	921	v(921)	voltage
	922	v(922)	voltage
	923	v(923)	voltage
	924	v(924)	voltage
	925	v(925)	voltage
	926	v(926)	voltage
	927	v(927)	voltage
	928	v(928)	voltage
	929	v(929)	voltage
	930	v(930)	voltage
	931	v(931)	voltage
	932	v(932)	voltage
	933	v(933)	voltage
	934	v(934)	voltage
	935	v(935)	voltage
	936	v(936)	voltage
	937	v(937)	voltage
	938	v(938)	voltage
	939	v(939)	voltage
	940	v(940)	voltage
	941	v(941)	voltage
	942	v(942)	voltage
	943	v(943)	voltage
	944	v(944)	voltage
	945	v(945)	voltage
	946	v(946)	voltage
	947	v(947)	voltage
	948	v(948)	voltage
	949	v(949)	voltage
	950	v(950)	voltage
	951	v(951)	voltage
	952	v(952)	voltage
	953	v(953)	voltage
	954	v(954)	voltage
	955	v(955)	voltage
	956	v(956)	voltage
	957	v(957)	voltage
	958	v(958)	voltage
	959	v(959)	voltage
	960	v(960)	voltage
	961	v(961)	voltage
	962	v(962)	voltage
	963	v(963)	voltage
	964	v(964)	voltage
	965	v(965)	voltage
	966	v(966)	voltage
	967	v(967)	voltage
	968	v(968)	voltage
	969	v(969)	voltage
	970	v(970)	voltage
	971	v(971)	voltage
	972	v(972)	voltage
	973	v(973)	voltage
	974	v(974)	voltage
	975	v(975)	voltage
	976	v(976)	voltage
	977	v(977)	voltage
	978	v(978)	voltage
	979	v(979)	voltage
	980	v(980)	voltage
	981	v(981)	voltage
	982	v(982)	voltage
	983	v(983)	voltage
	984	v(984)	voltage
	985	v(985)	voltage
	986	v(986)	voltage
	987	v(987)	voltage
	988	v(988)	voltage
	989	v(989)	voltage
	990	v(990)	voltage
	991	v(991)	voltage
	992	v(992)	voltage
	993	v(993)	voltage
	994	v(994)	voltage
	995	v(995)	voltage
	996	v(996)	voltage
	997	v(997)	voltage
	998	v(998)	voltage
	999	v(999)	voltage
	1000	v(1000)	voltage
	1001	v(1001)	voltage
	1002	v(1002)	voltage
	1003	v(1003)	voltage
	1004	v(1004)	voltage
	1005	v(1005)	voltage
	1006	v(1006)	voltage
	1007	v(1007)	voltage
	1008	v(1008)	voltage
	1009	v(1009)	voltage
	1010	v(1010)	voltage
	1011	v(1011)	voltage
	1012	v(1012)	voltage
	1013	v(1013)	voltage
	1014	v(1014)	voltage
	1015	v(1015)	voltage
	1016	v(1016)	voltage
	1017	v(1017)	voltage
	1018	v(1018)	voltage
	1019	v(1019)	voltage
	1020	v(1020)	voltage
	1021	v(1021)	voltage
	1022	v(1022)	voltage
	1023	v(1023)	voltage
	1024	v(1024)	voltage
	1025	v(1025)	voltage
	1026	v(1026)	voltage
	1027	v(1027)	voltage
	1028	v(1028)	voltage
	1029	v(1029)	voltage
	1030	v(1030)	voltage
	1031	v(1031)	voltage
	1032	v(1032)	voltage
	1033	v(1033)	voltage
	1034	v(1034)	voltage
	1035	v(1035)	voltage
	1036	v(1036)	voltage
	1037	v(1037)	voltage
	1038	v(1038)	voltage
	1039	v(1039)	voltage
	1040	v(1040)	voltage
	1041	v(1041)	voltage
	1042	v(1042)	voltage
	1043	v(1043)	voltage
	1044	v(1044)	voltage
	1045	v(1045)	voltage
	1046	v(1046)	voltage
	1047	v(1047)	voltage
	1048	v(1048)	voltage
	1049	v(1049)	voltage
	1050	v(1050)	voltage
	1051	v(1051)	voltage
	1052	v(1052)	voltage
	1053	v(1053)	voltage
	1054	v(1054)	voltage
	1055	v(1055)	voltage
	1056	v(1056)	voltage
	1057	v(1057)	voltage
	1058	v(1058)	voltage
	1059	v(1059)	voltage
	1060	v(1060)	voltage
	1061	v(1061)	voltage
	1062	v(1062)	voltage
	1063	v(1063)	voltage
	1064	v(1064)	voltage
	1065	v(1065)	voltage
	1066	v(1066)	voltage
	1067	v(1067)	voltage
	1068	v(1068)	voltage
	1069	v(1069)	voltage
	1070	v(1070)	voltage
	1071	v(1071)	voltage
	1072	v(1072)	voltage
	1073	v(1073)	voltage
	1074	v(1074)	voltage
	1075	v(1075)	voltage
	1076	v(1076)	voltage
	1077	v(1077)	voltage
	1078	v(1078)	voltage
	1079	v(1079)	voltage
	1080	v(1080)	voltage
	1081	v(1081)	voltage
	1082	v(1082)	voltage
	1083	v(1083)	voltage
	1084	v(1084)	voltage
	1085	v(1085)	voltage
	1086	v(1086)	voltage
	1087	v(1087)	voltage
	1088	v(1088)	voltage
	1089	v(1089)	voltage
	1090	v(1090)	voltage
	1091	v(1091)	voltage
	1092	v(1092)	voltage
	1093	v(1093)	voltage
	1094	v(1094)	voltage
	1095	v(1095)	voltage
	1096	v(1096)	voltage
	1097	v(1097)	voltage
	1098	v(1098)	voltage
	1099	v(1099)	voltage
	1100	v(1100)	voltage
	1101	v(1101)	voltage
	1102	v(1102)	voltage
	1103	v(1103)	voltage
	1104	v(1104)	voltage
	1105	v(1105)	voltage
	1106	v(1106)	voltage
	1107	v(1107)	voltage
	1108	v(1108)	voltage
	1109	v(1109)	voltage
	1110	v(1110)	voltage
	1111	v(1111)	voltage
	1112	v(1112)	voltage
	1113	v(1113)	voltage
	1114	v(1114)	voltage
	1115	v(1115)	voltage
	1116	v(1116)	voltage
	1117	v(1117)	voltage
	1118	v(1118)	voltage
	1119	v(1119)	voltage
	1120	v(1120)	voltage
	1121	v(1121)	voltage
	1122	v(1122)	voltage
	1123	v(1123)	voltage
	1124	v(1124)	voltage
	1125	v(1125)	voltage
	1126	v(1126)	voltage
	1127	v(1127)	voltage
	1128	v(1128)	voltage
	1129	v(1129)	voltage
	1130	v(1130)	voltage
	1131	v(1131)	voltage
	1132	v(1132)	voltage
	1133	v(1133)	voltage
	1134	v(1134)	voltage
	1135	v(1135)	voltage
	1136	v(1136)	voltage
	1137	v(1137)	voltage
	1138	v(1138)	voltage
	1139	v(1139)	voltage
	1140	v(1140)	voltage
	1141	v(1141)	voltage
	1142	v(1142)	voltage
	1143	v(1143)	voltage
	1144	v(1144)	voltage
	1145	v(1145)	voltage
	1146	v(1146)	voltage
	1147	v(1147)	voltage
	1148	v(1148)	voltage
	1149	v(1149)	voltage
	1150	v(1150)	voltage
	1151	v(1151)	voltage
	1152	v(1152)	voltage
	1153	v(1153)	voltage
	1154	v(1154)	voltage
	1155	v(1155)	voltage
	1156	v(1156)	voltage
	1157	v(1157)	voltage
	1158	v(1158)	voltage
	1159	v(1159)	voltage
	1160	v(1160)	voltage
	1161	v(1161)	voltage
	1162	v(1162)	voltage
	1163	v(1163)	voltage
	1164	v(1164)	voltage
	1165	v(1165)	voltage
	1166	v(1166)	voltage
	1167	v(1167)	voltage
	1168	v(1168)	voltage
	1169	v(1169)	voltage
	1170	v(1170)	voltage
	1171	v(1171)	voltage
	1172	v(1172)	voltage
	1173	v(1173)	voltage
	1174	v(1174)	voltage
	1175	v(1175)	voltage
	1176	v(1176)	voltage
	1177	v(1177)	voltage
	1178	v(1178)	voltage
	1179	v(1179)	voltage
	1180	v(1180)	voltage
	1181	v(1181)	voltage
	1182	v(1182)	voltage
	1183	v(1183)	voltage
	1184	v(1184)	voltage
	1185	v(1185)	voltage
	1186	v(1186)	voltage
	1187	v(1187)	voltage
	1188	v(1188)	voltage
	1189	v(1189)	voltage
	1190	v(1190)	voltage
	1191	v(1191)	voltage
	1192	v(1192)	voltage
	1193	v(1193)	voltage
	1194	v(1194)	voltage
	1195	v(1195)	voltage
	1196	v(1196)	voltage
	1197	v(1197)	voltage
	1198	v(1198)	voltage
	1199	v(1199)	voltage
	1200	v(1200)	voltage
	1201	v(1201)	voltage
	1202	v(1202)	voltage
	1203	v(1203)	voltage
	1204	v(1204)	voltage
	1205	v(1205)	voltage
	1206	v(1206)	voltage
	1207	v(1207)	voltage
	1208	v(1208)	voltage
	1209	v(1209)	voltage
	1210	v(1210)	voltage
	1211	v(1211)	voltage
	1212	v(1212)	voltage
	1213	v(1213)	voltage
	1214	v(1214)	voltage
	1215	v(1215)	voltage
	1216	v(1216)	voltage
	1217	v(1217)	voltage
	1218	v(1218)	voltage
	1219	v(1219)	voltage
	1220	v(1220)	voltage
	1221	v(1221)	voltage
	1222	v(1222)	voltage
	1223	v(1223)	voltage
	1224	v(1224)	voltage
	1225	v(1225)	voltage
	1226	v(1226)	voltage
	1227	v(1227)	voltage
	1228	v(1228)	voltage
	1229	v(1229)	voltage
	1230	v(1230)	voltage
	1231	v(1231)	voltage
	1232	v(1232)	voltage
	1233	v(1233)	voltage
	1234	v(1234)	voltage
	1235	v(1235)	voltage
	1236	v(1236)	voltage
	1237	v(1237)	voltage
	1238	v(1238)	voltage
	1239	v(1239)	voltage
	1240	v(1240)	voltage
	1241	v(1241)	voltage
	1242	v(1242)	voltage
	1243	v(1243)	voltage
	1244	v(1244)	voltage
	1245	v(1245)	voltage
	1246	v(1246)	voltage
	1247	v(1247)	voltage
	1248	v(1248)	voltage
	1249	v(1249)	voltage
	1250	v(1250)	voltage
	1251	v(1251)	voltage
	1252	v(1252)	voltage
	1253	v(1253)	voltage
	1254	v(1254)	voltage
	1255	v(1255)	voltage
	1256	v(1256)	voltage
	1257	v(1257)	voltage
	1258	v(1258)	voltage
	1259	v(1259)	voltage
	1260	v(1260)	voltage
	1261	v(1261)	voltage
	1262	v(1262)	voltage
	1263	v(1263)	voltage
	1264	v(1264)	voltage
	1265	v(1265)	voltage
	1266	v(1266)	voltage
	1267	v(1267)	voltage
	1268	v(1268)	voltage
	1269	v(1269)	voltage
	1270	v(1270)	voltage
	1271	v(1271)	voltage
	1272	v(1272)	voltage
	1273	v(1273)	voltage
	1274	v(1274)	voltage
	1275	v(1275)	voltage
	1276	v(1276)	voltage
	1277	v(1277)	voltage
	1278	v(1278)	voltage
	1279	v(1279)	voltage
	1280	v(1280)	voltage
	1281	v(1281)	voltage
	1282	v(1282)	voltage
	1283	v(1283)	voltage
	1284	v(1284)	voltage
	1285	v(1285)	voltage
	1286	v(1286)	voltage
	1287	v(1287)	voltage
	1288	v(1288)	voltage
	1289	v(1289)	voltage
	1290	v(1290)	voltage
	1291	v(1291)	voltage
	1292	v(1292)	voltage
	1293	v(1293)	voltage
	1294	v(1294)	voltage
	1295	v(1295)	voltage
	1296	v(1296)	voltage
	1297	v(1297)	voltage
	1298	v(1298)	voltage
	1299	v(1299)	voltage
	1300	v(1300)	voltage
	1301	v(1301)	voltage
	1302	v(1302)	voltage
	1303	v(1303)	voltage
	1304	v(1304)	voltage
	1305	v(1305)	voltage
	1306	v(1306)	voltage
	1307	v(1307)	voltage
	1308	v(1308)	voltage
	1309	v(1309)	voltage
	1310	v(1310)	voltage
	1311	v(1311)	voltage
	1312	v(1312)	voltage
	1313	v(1313)	voltage
	1314	v(1314)	voltage
	1315	v(1315)	voltage
	1316	v(1316)	voltage
	1317	v(1317)	voltage
	1318	v(1318)	voltage
	1319	v(1319)	voltage
	1320	v(1320)	voltage
	1321	v(1321)	voltage
	1322	v(1322)	voltage
	1323	v(1323)	voltage
	1324	v(1324)	voltage
	1325	v(1325)	voltage
	1326	v(1326)	voltage
	1327	v(1327)	voltage
	1328	v(1328)	voltage
	1329	v(1329)	voltage
	1330	v(1330)	voltage
	1331	v(1331)	voltage
	1332	v(1332)	voltage
	1333	v(1333)	voltage
	1334	v(1334)	voltage
	1335	v(1335)	voltage
	1336	v(1336)	voltage
	1337	v(1337)	voltage
	1338	v(1338)	voltage
	1339	v(1339)	voltage
	1340	v(1340)	voltage
	1341	v(1341)	voltage
	1342	v(1342)	voltage
	1343	i(vin)	current
Values:
 0	1.000000000000000e+10,0.000000000000000e+00
	2.499972338367746e-02,-2.381690276823914e-06
	2.499972850418550e-02,-2.337628278800160e-06
	2.499972731221803e-02,-2.347867675236058e-06
	2.499972641588801e-02,-2.355580668127086e-06
	2.499972577341960e-02,-2.361109142401435e-06
	2.499972249993835e-02,-2.389277030312876e-06
	2.499972152119552e-02,-2.397716223357519e-06
	2.499971804438858e-02,-2.427637312556880e-06
	2.499972422064506e-02,-2.374485180440756e-06
	2.499972520807361e-02,-2.365985214171149e-06
	2.499973297005767e-02,-2.299172399035922e-06
	2.499973461721119e-02,-2.285023177707154e-06
	2.499972227116582e-02,-2.391246944520212e-06
	2.499972037449739e-02,-2.407586762459435e-06
	2.311119533559984e-02,2.169330521181019e-04
	2.499973588465271e-02,-2.274113690200872e-06
	2.499976042567339e-02,-2.062921362171220e-06
	2.499972042299833e-02,-2.407136733520777e-06
	2.499973402811042e-02,-2.290106343679510e-06
	2.499972559906390e-02,-2.362631752537495e-06
	2.499972964975395e-02,-2.327753819137168e-06
	2.499973373110379e-02,-2.292634334830878e-06
	2.499972579796228e-02,-2.360899000617861e-06
	2.499973167071264e-02,-2.310366198315023e-06
	2.499972555376561e-02,-2.362999051131577e-06
	2.499972523531527e-02,-2.365738164025570e-06
	2.499973721667505e-02,-2.262654997050507e-06
	2.499972437976785e-02,-2.373105153147434e-06
	2.499971970542104e-02,-2.413323902784257e-06
	2.340672743281124e-02,1.826619065106303e-04
	2.499972270298105e-02,-2.387545942501509e-06
	2.404339815185655e-02,1.087026906093923e-04
	2.499972038906452e-02,-2.407455711806786e-06
	2.364994806612588e-02,1.543708856565396e-04
	2.352297652513042e-02,1.691163294469972e-04
	2.499975977217520e-02,-2.068540235022394e-06
	2.499972977498510e-02,-2.326698457912075e-06
	2.499973205611527e-02,-2.307047876255608e-06
	2.499972923677655e-02,-2.331306815463085e-06
	2.499973100077499e-02,-2.316121171096632e-06
	2.499976411444975e-02,-2.031139683656826e-06
	2.499974875391928e-02,-2.163318022818488e-06
	2.499974142284065e-02,-2.226380108026299e-06
	2.499974246410899e-02,-2.217455424414485e-06
	2.344119423532561e-02,1.786973819773911e-04
	2.499975037039041e-02,-2.149485735837475e-06
	2.499973786083592e-02,-2.256970267014085e-06
	2.499973287201272e-02,-2.299961617671079e-06
	2.499971404600443e-02,-2.461787500631700e-06
	2.499971194760312e-02,-2.479842217930301e-06
	2.499971385763855e-02,-2.463406677264498e-06
	2.323179413386817e-02,2.029899345489226e-04
	2.330713680346850e-02,1.942361681509509e-04