% Model:              geometry_test_remi_eugenie_sans_cellule_ter.mph
% Version:            COMSOL 6.2.0.415
% Date:               Oct 8 2024, 17:03
% Dimension:          3
% Nodes:              508
% Expressions:        21
% Description:        Potentiel électrique
% Length unit:        µm
% x                       y                        z                        V (V) @ freq=1000                                 V (V) @ freq=1258.9                               V (V) @ freq=1584.9                               V (V) @ freq=1995.3                               V (V) @ freq=2511.9                               V (V) @ freq=3162.3                               V (V) @ freq=3981.1                               V (V) @ freq=5011.9                               V (V) @ freq=6309.6                               V (V) @ freq=7943.3                               V (V) @ freq=10000                                V (V) @ freq=12589                                V (V) @ freq=15849                                V (V) @ freq=19953                                V (V) @ freq=25119                                V (V) @ freq=31623                                V (V) @ freq=39811                                V (V) @ freq=50119                                V (V) @ freq=63096                                V (V) @ freq=79433                                V (V) @ freq=1E5
-99.99999999999999        -40                      0                        1.2499999296664763E-14+5.563249966400785E-16i     1.2499999296664774E-14+7.003716754865E-16i        1.2499999296664785E-14+8.817156999708137E-16i     1.2499999296664944E-14+1.1100143006711399E-15i    1.2499999296664878E-14+1.3974252105698277E-15i    1.2499999296665096E-14+1.7592541086681817E-15i    1.2499999296665208E-14+2.214769703205654E-15i     1.2499999296665501E-14+2.7882298606374213E-15i    1.2499999296665911E-14+3.5101734254797728E-15i    1.2499999296666558E-14+4.419046525141066E-15i     1.2499999296667589E-14+5.563249966400826E-15i     1.2499999296669215E-14+7.0037167548650195E-15i    1.249999929667179E-14+8.817156999708181E-15i      1.2499999296675823E-14+1.1100143006711396E-14i    1.249999929668232E-14+1.3974252105698325E-14i     1.2499999296692646E-14+1.759254108668169E-14i     1.2499999296708931E-14+2.214769703205652E-14i     1.2499999296734722E-14+2.7882298606374356E-14i    1.2499999296775672E-14+3.510173425479769E-14i     1.2499999296840562E-14+4.4190465251410523E-14i    1.2499999296943346E-14+5.563249966400792E-14i
-104.70304243437562       -27.48431037109397       -8.881784197001252E-16   6.621196584696406E-15+2.946829899996368E-16i      6.621196584696414E-15+3.709839045340293E-16i      6.621196584696415E-15+4.670410647845114E-16i      6.621196584696505E-15+5.879698648086278E-16i      6.6211965846964694E-15+7.40210204176762E-16i      6.621196584696585E-15+9.318694361074804E-16i      6.6211965846966445E-15+1.1731541135899997E-15i    6.621196584696798E-15+1.4769135255493098E-15i     6.621196584697018E-15+1.859323968336544E-15i      6.621196584697365E-15+2.340750192496851E-15i      6.621196584697908E-15+2.94682989999639E-15i       6.621196584698767E-15+3.709839045340302E-15i      6.621196584700135E-15+4.670410647845136E-15i      6.62119658470227E-15+5.8796986480862786E-15i      6.621196584705703E-15+7.402102041767639E-15i      6.621196584711178E-15+9.318694361074731E-15i      6.621196584719806E-15+1.1731541135899979E-14i     6.621196584733472E-15+1.4769135255493166E-14i     6.621196584755147E-15+1.8593239683365445E-14i     6.621196584789523E-15+2.340750192496845E-14i      6.6211965848439675E-15+2.946829899996372E-14i
-99.99999999999999        -27.484310371093965      -8.881784197001252E-16   1.2499999298637846E-14+5.563249967278924E-16i     1.2499999298637855E-14+7.00371675597051E-16i      1.2499999298637862E-14+8.817157001099897E-16i     1.2499999298638032E-14+1.110014300846352E-15i     1.2499999298637966E-14+1.397425210790407E-15i     1.2499999298638184E-14+1.7592541089458744E-15i    1.2499999298638294E-14+2.21476970355525E-15i      1.2499999298638586E-14+2.788229861077535E-15i     1.2499999298638993E-14+3.5101734260338403E-15i    1.2499999298639645E-14+4.419046525838596E-15i     1.2499999298640676E-14+5.563249967278964E-15i     1.2499999298642298E-14+7.003716755970527E-15i     1.2499999298644878E-14+8.817157001099932E-15i     1.2499999298648906E-14+1.1100143008463522E-14i    1.2499999298655393E-14+1.3974252107904103E-14i    1.2499999298665732E-14+1.7592541089458613E-14i    1.2499999298682022E-14+2.214769703555246E-14i     1.2499999298707818E-14+2.7882298610775486E-14i    1.2499999298748742E-14+3.5101734260338387E-14i    1.2499999298813637E-14+4.419046525838583E-14i     1.2499999298916421E-14+5.5632499672789335E-14i
-110                      -40                      0                        0                                                 0                                                 0                                                 0                                                 0                                                 0                                                 0                                                 0                                                 0                                                 0                                                 0                                                 0                                                 0                                                 0                                                 0                                                 0                                                 0                                                 0                                                 0                                                 0                                                 0
-110                      -27.48431037109396       -8.881784197001252E-16   0                                                 0                                                 0                                                 0                                                 0                                                 0                                                 0                                                 0                                                 0                                                 0                                                 0                                                 0                                                 0                                                 0                                                 0                                                 0                                                 0                                                 0                                                 0                                                 0                                                 0
-104.99999999999999       0                        0                        6.24999964985993E-15+2.7816249838802433E-16i      6.249999649859942E-15+3.501858378288387E-16i      6.249999649859946E-15+4.408578500931565E-16i      6.249999649860034E-15+5.550071504712191E-16i      6.249999649860006E-15+6.987126054556859E-16i      6.249999649860102E-15+8.796270545490801E-16i      6.2499996498601605E-15+1.1073848518734815E-15i    6.249999649860298E-15+1.3941149306594485E-15i     6.24999964986051E-15+1.7550867131688423E-15i      6.249999649860838E-15+2.209523263110558E-15i      6.249999649861352E-15+2.7816249838802635E-15i     6.249999649862163E-15+3.501858378288395E-15i      6.249999649863451E-15+4.4085785009315814E-15i     6.249999649865467E-15+5.5500715047121806E-15i     6.2499996498687054E-15+6.987126054556867E-15i     6.2499996498738756E-15+8.796270545490734E-15i     6.249999649882026E-15+1.1073848518734808E-14i     6.249999649894917E-15+1.3941149306594498E-14i     6.2499996499153855E-15+1.7550867131688464E-14i    6.24999964994783E-15+2.2095232631105548E-14i      6.2499996499992335E-15+2.7816249838802504E-14i
-110                      9.120329224321797        -2.220446049250313E-16   0                                                 0                                                 0                                                 0                                                 0                                                 0                                                 0                                                 0                                                 0                                                 0                                                 0                                                 0                                                 0                                                 0                                                 0                                                 0                                                 0                                                 0                                                 0                                                 0                                                 0
-110                      -2.773553610449509       8.881784197001252E-16    0                                                 0                                                 0                                                 0                                                 0                                                 0                                                 0                                                 0                                                 0                                                 0                                                 0                                                 0                                                 0                                                 0                                                 0                                                 0                                                 0                                                 0                                                 0                                                 0                                                 0
-100.3208407332051        -14.215760518867844      -2.3314683517128287E-15  1.2098948403559969E-14+5.384758246950407E-16i     1.2098948403559983E-14+6.77900899345408E-16i      1.2098948403559999E-14+8.534266688640554E-16i     1.2098948403560142E-14+1.0744005205358055E-15i    1.209894840356009E-14+1.3525901177474068E-15i     1.2098948403560287E-14+1.702810070973883E-15i     1.2098948403560402E-14+2.1437108698080348E-15i    1.209894840356069E-14+2.6987720895407124E-15i     1.2098948403561081E-14+3.397552764163654E-15i     1.209894840356171E-14+4.2772655127171424E-15i     1.20989484035627E-14+5.384758246950437E-15i       1.2098948403564282E-14+6.779008993454105E-15i     1.2098948403566781E-14+8.534266688640589E-15i     1.2098948403570667E-14+1.074400520535805E-14i     1.209894840357696E-14+1.352590117747409E-14i      1.2098948403586965E-14+1.7028100709738708E-14i    1.2098948403602725E-14+2.143710869808033E-14i     1.2098948403627697E-14+2.698772089540723E-14i     1.2098948403667315E-14+3.3975527641636566E-14i    1.2098948403730121E-14+4.277265512717133E-14i     1.2098948403829603E-14+5.3847582469504085E-14i
-110                      -14.215760518867848      -2.3314683517128287E-15  0                                                 0                                                 0                                                 0                                                 0                                                 0                                                 0                                                 0                                                 0                                                 0                                                 0                                                 0                                                 0                                                 0                                                 0                                                 0                                                 0                                                 0                                                 0                                                 0                                                 0
-110                      -14.959453965509674      0                        0                                                 0                                                 0                                                 0                                                 0                                                 0                                                 0                                                 0                                                 0                                                 0                                                 0                                                 0                                                 0                                                 0                                                 0                                                 0                                                 0                                                 0                                                 0                                                 0                                                 0
-100.56660362256318       -14.95945396550967       0                        1.179174480912652E-14+5.248034208344573E-16i      1.1791744809126533E-14+6.606883626850069E-16i     1.1791744809126549E-14+8.317573690608378E-16i     1.1791744809126688E-14+1.0471204883577486E-15i    1.1791744809126637E-14+1.3182465920038882E-15i    1.179174480912683E-14+1.6595741336847601E-15i     1.1791744809126943E-14+2.089280049652019E-15i     1.1791744809127223E-14+2.6302477468615063E-15i    1.1791744809127603E-14+3.3112857278383095E-15i    1.1791744809128217E-14+4.168661748486996E-15i     1.179174480912918E-14+5.248034208344603E-15i      1.1791744809130724E-14+6.606883626850093E-15i     1.179174480913316E-14+8.317573690608411E-15i      1.1791744809136946E-14+1.0471204883577479E-14i    1.179174480914308E-14+1.3182465920038903E-14i     1.179174480915283E-14+1.659574133684748E-14i      1.179174480916819E-14+2.0892800496520174E-14i     1.1791744809192529E-14+2.6302477468615167E-14i    1.179174480923114E-14+3.311285727838312E-14i      1.1791744809292352E-14+4.168661748486987E-14i     1.1791744809389307E-14+5.2480342083445747E-14i
-99.99999999999999        -14.215760518867844      -2.1094237467877974E-15  1.2499999297588614E-14+5.563249966811957E-16i     1.2499999297588628E-14+7.003716755382631E-16i     1.2499999297588644E-14+8.817157000359802E-16i     1.2499999297588794E-14+1.110014300753179E-15i     1.2499999297588738E-14+1.3974252106731107E-15i    1.2499999297588943E-14+1.7592541087982047E-15i    1.2499999297589062E-14+2.214769703369344E-15i     1.2499999297589358E-14+2.788229860843497E-15i     1.2499999297589762E-14+3.5101734257392007E-15i    1.2499999297590412E-14+4.419046525467669E-15i     1.2499999297591435E-14+5.563249966811989E-15i     1.2499999297593069E-14+7.003716755382657E-15i     1.2499999297595652E-14+8.817157000359837E-15i     1.2499999297599667E-14+1.1100143007531784E-14i    1.2499999297606169E-14+1.397425210673113E-14i     1.2499999297616505E-14+1.759254108798192E-14i     1.2499999297632787E-14+2.214769703369342E-14i     1.2499999297658587E-14+2.7882298608435078E-14i    1.2499999297699518E-14+3.5101734257392035E-14i    1.2499999297764407E-14+4.4190465254676597E-14i    1.2499999297867186E-14+5.5632499668119594E-14i
-99.99999999999997        -14.95945396550967       4.440892098500626E-16    1.2499999297690542E-14+5.563249966857321E-16i     1.2499999297690555E-14+7.003716755439741E-16i     1.249999929769057E-14+8.8171570004317E-16i        1.249999929769072E-14+1.1100143007622304E-15i     1.2499999297690665E-14+1.3974252106845054E-15i    1.249999929769087E-14+1.7592541088125502E-15i     1.249999929769099E-14+2.2147697033874038E-15i     1.2499999297691285E-14+2.7882298608662324E-15i    1.249999929769169E-14+3.5101734257678233E-15i     1.249999929769234E-14+4.419046525503703E-15i      1.2499999297693362E-14+5.563249966857353E-15i     1.2499999297694998E-14+7.003716755439766E-15i     1.2499999297697579E-14+8.817157000431734E-15i     1.2499999297701594E-14+1.1100143007622297E-14i    1.2499999297708096E-14+1.3974252106845078E-14i    1.2499999297718432E-14+1.7592541088125375E-14i    1.2499999297734714E-14+2.2147697033874016E-14i    1.2499999297760516E-14+2.7882298608662437E-14i    1.2499999297801445E-14+3.510173425767825E-14i     1.2499999297866334E-14+4.4190465255036936E-14i    1.2499999297969113E-14+5.5632499668573227E-14i
-101.1142880103184        -13.006752142296477      -1.6653345369377348E-16  1.1107139362905785E-14+4.943343693145783E-16i     1.1107139362905798E-14+6.223300994533655E-16i     1.1107139362905812E-14+7.834671767262345E-16i     1.1107139362905944E-14+9.863267380872886E-16i     1.1107139362905896E-14+1.2417117949101376E-15i    1.1107139362906077E-14+1.5632225327369268E-15i    1.1107139362906184E-14+1.967980570751742E-15i     1.1107139362906448E-14+2.4775407504365567E-15i    1.1107139362906806E-14+3.119039009480179E-15i     1.1107139362907383E-14+3.926637469411909E-15i     1.1107139362908292E-14+4.943343693145811E-15i     1.1107139362909744E-14+6.223300994533678E-15i     1.1107139362912039E-14+7.834671767262376E-15i     1.1107139362915606E-14+9.863267380872881E-15i     1.1107139362921384E-14+1.2417117949101396E-14i    1.1107139362930568E-14+1.5632225327369156E-14i    1.1107139362945036E-14+1.96798057075174E-14i      1.1107139362967962E-14+2.4775407504365663E-14i    1.1107139363004331E-14+3.1190390094801817E-14i    1.110713936306199E-14+3.9266374694119E-14i        1.1107139363153317E-14+4.943343693145785E-14i
-110                      -13.006752142296481      -1.6653345369377348E-16  0                                                 0                                                 0                                                 0                                                 0                                                 0                                                 0                                                 0                                                 0                                                 0                                                 0                                                 0                                                 0                                                 0                                                 0                                                 0                                                 0                                                 0                                                 0                                                 0                                                 0
-99.99999999999999        -13.006752142296477      -1.6653345369377348E-16  1.2499999297679446E-14+5.5632499668523825E-16i    1.249999929767946E-14+7.003716755433525E-16i      1.2499999297679476E-14+8.817157000423873E-16i     1.2499999297679626E-14+1.1100143007612451E-15i    1.2499999297679572E-14+1.397425210683265E-15i     1.2499999297679774E-14+1.7592541088109886E-15i    1.2499999297679894E-14+2.214769703385438E-15i     1.2499999297680191E-14+2.788229860863758E-15i     1.2499999297680595E-14+3.5101734257647077E-15i    1.2499999297681245E-14+4.419046525499781E-15i     1.2499999297682269E-14+5.563249966852415E-15i     1.24999992976839E-14+7.003716755433549E-15i       1.2499999297686483E-14+8.817157000423907E-15i     1.24999992976905E-14+1.1100143007612445E-14i      1.2499999297697E-14+1.3974252106832672E-14i       1.2499999297707336E-14+1.7592541088109762E-14i    1.2499999297723618E-14+2.2147697033854357E-14i    1.249999929774942E-14+2.7882298608637686E-14i     1.2499999297790349E-14+3.510173425764711E-14i     1.2499999297855239E-14+4.419046525499771E-14i     1.249999929795802E-14+5.563249966852385E-14i
-110                      40                       0                        0                                                 0                                                 0                                                 0                                                 0                                                 0                                                 0                                                 0                                                 0                                                 0                                                 0                                                 0                                                 0                                                 0                                                 0                                                 0                                                 0                                                 0                                                 0                                                 0                                                 0
-105.12087904027135       26.240662531751617       -1.3322676295501878E-15  6.098900859183254E-15+2.714376952723988E-16i      6.098900859183255E-15+3.417198122972654E-16i      6.09890085918326E-15+4.3019975541456087E-16i      6.098900859183347E-15+5.415894042390253E-16i      6.09890085918332E-15+6.818206637549728E-16i       6.098900859183409E-15+8.583613598875075E-16i      6.098900859183467E-15+1.0806129284645725E-15i     6.098900859183606E-15+1.3604110759573651E-15i     6.098900859183805E-15+1.712656074008971E-15i      6.098900859184129E-15+2.1561062532335288E-15i     6.0989008591846314E-15+2.7143769527240127E-15i    6.098900859185417E-15+3.4171981229726613E-15i     6.098900859186671E-15+4.30199755414562E-15i       6.0989008591886514E-15+5.4158940423902625E-15i    6.098900859191816E-15+6.8182066375497466E-15i     6.0989008591968595E-15+8.583613598875002E-15i     6.098900859204806E-15+1.0806129284645706E-14i     6.098900859217388E-15+1.3604110759573668E-14i     6.098900859237361E-15+1.7126560740089753E-14i     6.098900859269018E-15+2.156106253233525E-14i      6.09890085931918E-15+2.714376952723998E-14i
-110                      26.24066253175161        -4.440892098500626E-16   0                                                 0                                                 0                                                 0                                                 0                                                 0                                                 0                                                 0                                                 0                                                 0                                                 0                                                 0                                                 0                                                 0                                                 0                                                 0                                                 0                                                 0                                                 0                                                 0                                                 0
-99.99999999999999        40                       0                        1.24999993011075E-14+5.563249968378067E-16i       1.2499999301107515E-14+7.003716757354261E-16i     1.2499999301107527E-14+8.817157002841944E-16i     1.2499999301107713E-14+1.1100143010656608E-15i    1.2499999301107646E-14+1.3974252110665005E-15i    1.2499999301107831E-14+1.7592541092934585E-15i    1.2499999301107952E-14+2.214769703992829E-15i     1.2499999301108225E-14+2.788229861628421E-15i     1.2499999301108645E-14+3.510173426727355E-15i     1.2499999301109314E-14+4.419046526711683E-15i     1.2499999301110338E-14+5.563249968378111E-15i     1.2499999301111954E-14+7.003716757354281E-15i     1.2499999301114516E-14+8.81715700284195E-15i      1.2499999301118569E-14+1.1100143010656609E-14i    1.2499999301125058E-14+1.3974252110665037E-14i    1.2499999301135378E-14+1.7592541092934417E-14i    1.249999930115168E-14+2.214769703992824E-14i      1.2499999301177473E-14+2.7882298616284257E-14i    1.249999930121841E-14+3.5101734267273585E-14i     1.2499999301283296E-14+4.419046526711677E-14i     1.2499999301386099E-14+5.5632499683780774E-14i
-110                      13.667660010041711       0                        0                                                 0                                                 0                                                 0                                                 0                                                 0                                                 0                                                 0                                                 0                                                 0                                                 0                                                 0                                                 0                                                 0                                                 0                                                 0                                                 0                                                 0                                                 0                                                 0                                                 0
-101.75844460604773       13.667660010041732       -4.440892098500626E-16   1.0301943664210158E-14+4.584983277484814E-16i     1.0301943664210171E-14+5.772151960676958E-16i     1.0301943664210188E-14+7.266708784033768E-16i     1.0301943664210325E-14+9.148244348327997E-16i     1.030194366421028E-14+1.1516957283412471E-15i     1.0301943664210426E-14+1.4498990190635984E-15i    1.0301943664210545E-14+1.8253147196345835E-15i    1.030194366421076E-14+2.297935085069926E-15i      1.0301943664211108E-14+2.892928873247924E-15i     1.030194366421164E-14+3.641981673044878E-15i      1.0301943664212496E-14+4.58498327748485E-15i      1.0301943664213828E-14+5.7721519606769714E-15i    1.0301943664215942E-14+7.266708784033774E-15i     1.0301943664219276E-14+9.148244348327992E-15i     1.0301943664224618E-14+1.1516957283412492E-14i    1.0301943664233144E-14+1.4498990190635855E-14i    1.0301943664246575E-14+1.825314719634579E-14i     1.0301943664267827E-14+2.2979350850699274E-14i    1.0301943664301567E-14+2.892928873247927E-14i     1.0301943664355039E-14+3.6419816730448714E-14i    1.0301943664439767E-14+4.584983277484831E-14i
-99.99999999999999        26.240662531751624       -1.3322676295501878E-15  1.2499999300942446E-14+5.563249968304602E-16i     1.2499999300942459E-14+7.003716757261781E-16i     1.2499999300942468E-14+8.817157002725515E-16i     1.2499999300942642E-14+1.110014301051003E-15i     1.2499999300942588E-14+1.397425211048048E-15i     1.2499999300942776E-14+1.7592541092702283E-15i    1.2499999300942898E-14+2.214769703963584E-15i     1.2499999300943175E-14+2.7882298615916046E-15i    1.2499999300943592E-14+3.510173426681003E-15i     1.2499999300944245E-14+4.4190465266533315E-15i    1.2499999300945281E-14+5.563249968304653E-15i     1.2499999300946889E-14+7.0037167572617975E-15i    1.2499999300949458E-14+8.817157002725531E-15i     1.2499999300953516E-14+1.1100143010510039E-14i    1.2499999300960003E-14+1.3974252110480512E-14i    1.2499999300970334E-14+1.759254109270212E-14i     1.2499999300986623E-14+2.2147697039635796E-14i    1.2499999301012415E-14+2.7882298615916083E-14i    1.249999930105335E-14+3.5101734266810113E-14i     1.2499999301118233E-14+4.419046526653323E-14i     1.2499999301221037E-14+5.563249968304622E-14i
-99.99999999999997        13.667660010041734       -2.220446049250313E-16   1.249999929863803E-14+5.563249967279001E-16i      1.2499999298638048E-14+7.003716755970626E-16i     1.2499999298638067E-14+8.817157001100051E-16i     1.2499999298638233E-14+1.11001430084637E-15i      1.2499999298638177E-14+1.397425210790429E-15i     1.2499999298638357E-14+1.7592541089459047E-15i    1.2499999298638496E-14+2.2147697035552844E-15i    1.249999929863876E-14+2.7882298610775855E-15i     1.2499999298639184E-14+3.5101734260338955E-15i    1.2499999298639828E-14+4.419046525838665E-15i     1.2499999298640869E-14+5.563249967279046E-15i     1.2499999298642481E-14+7.003716755970642E-15i     1.2499999298645048E-14+8.817157001100058E-15i     1.2499999298649095E-14+1.1100143008463693E-14i    1.2499999298655578E-14+1.3974252107904314E-14i    1.249999929866592E-14+1.7592541089458888E-14i     1.2499999298682216E-14+2.214769703555279E-14i     1.2499999298708004E-14+2.7882298610775874E-14i    1.2499999298748941E-14+3.5101734260339005E-14i    1.2499999298813823E-14+4.419046525838657E-14i     1.2499999298916628E-14+5.563249967279021E-14i